% Model:              Pt_secm_disk_Mesh.mph
% Version:            COMSOL 5.4.0.388
% Date:               May 31 2020, 21:12
% Dimension:          1
% Nodes:              50
% Expressions:        1
% Description:        Point graph
% x                       Height
3.3087224502121103E-15    0.9473559814677359
61.21999999999999         0.9476529941032051
122.44999999999997        0.9482599771031018
183.66999999999996        0.9492604945087668
244.9                     0.950723678869157
306.11999999999995        0.9527826972961011
367.35                    0.9553063681629307
428.56999999999994        0.9585765110237213
489.8                     0.9624334514822869
551.02                    0.9671026401620906
612.2399999999999         0.9726679871323073
673.47                    0.9771484909693527
734.6899999999999         0.986940775104355
795.9199999999998         0.9941662002202446
857.14                    0.9954022746205261
918.3700000000001         0.9958570353062527
979.5899999999999         0.9960751938847136
1040.82                   0.9961985222131753
1102.04                   0.9962945754801729
1163.27                   0.9963617494892726
1224.4899999999998        0.996421707419199
1285.7100000000003        0.9964259135225362
1346.94                   0.9964635533155562
1408.1599999999999        0.9964798528430956
1469.39                   0.9965025189646832
1530.6099999999997        0.996498467957799
1591.8399999999997        0.9965014863532736
1653.06                   0.9965069388940208
1714.2899999999997        0.9965123923254148
1775.5099999999998        0.9965211323439639
1836.7299999999998        0.996523735605842
1897.9599999999998        0.9965296717006333
1959.1799999999998        0.9965356068259499
2020.4099999999999        0.996539748126382
2081.6299999999997        0.99654230070972
2142.8600000000006        0.996542814144723
2204.08                   0.996538488863436
2265.31                   0.9965187895093167
2326.5299999999997        0.9965178859191932
2387.76                   0.9965169821814726
2448.9799999999996        0.9965160785913492
2510.2                    0.9965151750012257
2571.4299999999994        0.9964781281922127
2632.6499999999996        0.9964640558987392
2693.8799999999997        0.9964589967724164
2755.1                    0.9964452621748914
2816.3299999999995        0.9964345053185251
2877.5499999999997        0.9964271572328431
2938.7799999999997        0.9964198079468859
3000                      0.9963259166745524
