% Model:              Pt_secm_Bruker_p.mph
% Version:            COMSOL 5.4.0.388
% Date:               Jun 10 2020, 17:14
% Dimension:          1
% Nodes:              50
% Expressions:        1
% Description:        Point graph
% x                       Height
2.363373178722936E-17     0.49309600096695727
0.16000000000000003       0.49285556817174914
0.32999999999999996       0.4902519838499292
0.48999999999999994       0.4871918096843944
0.6499999999999999        0.4848315945011598
0.82                      0.4808276502202794
0.98                      0.4738980540049304
1.1399999999999997        0.4668021780707755
1.31                      0.4574633563405915
1.4699999999999998        0.4495693655179184
1.6299999999999994        0.4419765104919773
1.7999999999999996        0.43127144582898685
1.96                      0.41942224148364826
2.12                      0.4073257730753657
2.29                      0.39399363555794287
2.4499999999999997        0.3834055035729508
2.61                      0.37346140363253333
2.78                      0.3598715497305699
2.9399999999999995        0.3465543004111903
3.1                       0.33665401081325685
3.2700000000000005        0.3246334634148568
3.43                      0.312397662545723
3.59                      0.3021854364543121
3.7599999999999993        0.29122353390886013
3.92                      0.2816050729175877
4.08                      0.2723717583560602
4.24                      0.2630912491249775
4.41                      0.25410561191176634
4.570000000000001         0.24689070484399372
4.7299999999999995        0.2389868095849678
4.8999999999999995        0.2303685675573223
5.06                      0.22323073180909359
5.219999999999998         0.21759011870133302
5.389999999999999         0.21159696727433744
5.550000000000001         0.20595635416657687
5.709999999999999         0.20031574105881633
5.879999999999999         0.19408023985045872
6.040000000000001         0.18862032978462887
6.199999999999999         0.1834859192844971
6.369999999999999         0.17826978065062074
6.53                      0.17371689335960144
6.6899999999999995        0.16938048013129348
6.86                      0.1647730410762163
7.019999999999998         0.16043662784790833
7.18                      0.15634083219311232
7.349999999999999         0.15300944009142894
7.51                      0.14987401223102106
7.669999999999999         0.14673858437061316
7.84                      0.1434071922689298
8                         0.14027176440852193
