% Model:              Pt_secm_disk_np.mph
% Version:            COMSOL 5.4.0.388
% Date:               Jun 10 2020, 01:42
% Dimension:          1
% Nodes:              50
% Expressions:        1
% Description:        Point graph
% x                       Height
2.895132143935597E-17     0.32656061469605197
0.15999999999999998       0.32693781268658384
0.33000000000000007       0.326802275705723
0.4899999999999999        0.3258653213321557
0.6500000000000001        0.3249113379683185
0.8200000000000001        0.3238807767978278
0.9799999999999998        0.3225432518461366
1.1399999999999997        0.3205053938473585
1.31                      0.3179877817466901
1.47                      0.31655781716310905
1.63                      0.31512785257952797
1.8000000000000003        0.313608515209473
1.9600000000000002        0.3115415159149187
2.1200000000000006        0.3089184620770135
2.29                      0.3051923647614795
2.45                      0.3016854496409768
2.6100000000000003        0.29814298891347774
2.7800000000000002        0.2948340784699894
2.940000000000001         0.29186962795867377
3.1000000000000005        0.2892184468010906
3.2700000000000005        0.28625884441487415
3.4300000000000006        0.28296856845693663
3.5900000000000003        0.27942098298684065
3.7600000000000002        0.27565167342486363
3.9199999999999995        0.2721040879547677
4.080000000000001         0.26855650248467167
4.24                      0.26500891701457574
4.41                      0.2615134567423248
4.57                      0.25853852182629683
4.73                      0.2558567594162251
4.8999999999999995        0.25300738685552393
5.060000000000001         0.24929293879185527
5.2200000000000015        0.24562843290599884
5.390000000000001         0.24204489554558625
5.549999999999999         0.23973228692495943
5.710000000000001         0.23756324848986024
5.88                      0.23543575108643866
6.039999999999999         0.2338354675479073
6.2                       0.23268876914242978
6.370000000000001         0.23205387274104172
6.53                      0.23169525884747755
6.69                      0.23195823440952548
6.860000000000001         0.23340579196541386
7.019999999999999         0.24165582399911453
7.1800000000000015        0.23759027923218
7.3500000000000005        0.2329202693303652
7.510000000000001         0.22832343733653834
7.67                      0.22461296495615335
7.839999999999999         0.22108136760306818
8                         0.21771674993299456
