% Model:              Pt_secm_ele_HOPG_k0H.mph
% Version:            COMSOL 5.4.0.388
% Date:               May 14 2020, 18:10
% Table:              Table 13 - L = 50 Bulk (kback*cP, n*F*kback*cP, n*F*kback*cP/(n*F*k0*Atip), tds.ntflux_cP/(D*Atip/Rbase), tds.ntflux_cP/(kback*Atip), tds.ntflux_cP/(D*2.2*4*Rbase), tds.ntflux_cP/(D*2*pi*Rbase))
% Xa (m)                 L (nm)                   Kinetically limited (mM), Integral 12hemispherical Mass transfer coeff Bard (mM), Integral 12Cone Zoski 2002 RG = 5 (mM), Integral 12Hemisphere UME (mM), Integral 12
0                        875                      3.7651852742226586E-4    1.021276816885531        1.036816170842004        1.584138419204313
